# Forces

force: a push or pull on an object

## Types of Forces
- Gravitational force (F<sup>g</sup>)

